
#(C) 2017 by FIZ Karlsruhe - Leibniz Institute for Information Infrastructure.  All rights reserved.
data_73661-ICSD
_database_code_ICSD 73661
_audit_creation_date 1995-01-10
_audit_update_record 2005-10-01
_chemical_name_systematic Carbon
_chemical_formula_structural C60
_chemical_formula_sum C60
_chemical_name_mineral Fullerite
_exptl_crystal_density_diffrn 0.84
_publ_section_title

;
Structure of C60: Partial orientational order in the room-temperature
modification of C60
;
loop_
_citation_id
_citation_journal_full
_citation_year
_citation_journal_volume
_citation_page_first
_citation_page_last
_citation_journal_id_ASTM
primary 'Acta Crystallographica, Section B: Structural Science' 1993 49 832 838
ASBSDK
loop_
_publ_author_name
'Buergi, H.B.'
'Restori, R.'
'Schwarzenbach, D.'
_cell_length_a 14.16(1)
_cell_length_b 14.16(1)
_cell_length_c 14.16(1)
_cell_angle_alpha 90.
_cell_angle_beta 90.
_cell_angle_gamma 90.
_cell_volume 2839.16
_cell_formula_units_Z 2
_symmetry_space_group_name_H-M 'F m -3 m'
_symmetry_Int_Tables_number 225
_refine_ls_R_factor_all 0.036
loop_
_symmetry_equiv_pos_site_id
_symmetry_equiv_pos_as_xyz
1 'z, y, -x'
2 'y, x, -z'
3 'x, z, -y'
4 'z, x, -y'
5 'y, z, -x'
6 'x, y, -z'
7 'z, -y, x'
8 'y, -x, z'
9 'x, -z, y'
10 'z, -x, y'
11 'y, -z, x'
12 'x, -y, z'
13 '-z, y, x'
14 '-y, x, z'
15 '-x, z, y'
16 '-z, x, y'
17 '-y, z, x'
18 '-x, y, z'
19 '-z, -y, -x'
20 '-y, -x, -z'
21 '-x, -z, -y'
22 '-z, -x, -y'
23 '-y, -z, -x'
24 '-x, -y, -z'
25 '-z, -y, x'
26 '-y, -x, z'
27 '-x, -z, y'
28 '-z, -x, y'
29 '-y, -z, x'
30 '-x, -y, z'
31 '-z, y, -x'
32 '-y, x, -z'
33 '-x, z, -y'
34 '-z, x, -y'
35 '-y, z, -x'
36 '-x, y, -z'
37 'z, -y, -x'
38 'y, -x, -z'
39 'x, -z, -y'
40 'z, -x, -y'
41 'y, -z, -x'
42 'x, -y, -z'
43 'z, y, x'
44 'y, x, z'
45 'x, z, y'
46 'z, x, y'
47 'y, z, x'
48 'x, y, z'
49 'z, y+1/2, -x+1/2'
50 'y, x+1/2, -z+1/2'
51 'x, z+1/2, -y+1/2'
52 'z, x+1/2, -y+1/2'
53 'y, z+1/2, -x+1/2'
54 'x, y+1/2, -z+1/2'
55 'z, -y+1/2, x+1/2'
56 'y, -x+1/2, z+1/2'
57 'x, -z+1/2, y+1/2'
58 'z, -x+1/2, y+1/2'
59 'y, -z+1/2, x+1/2'
60 'x, -y+1/2, z+1/2'
61 '-z, y+1/2, x+1/2'
62 '-y, x+1/2, z+1/2'
63 '-x, z+1/2, y+1/2'
64 '-z, x+1/2, y+1/2'
65 '-y, z+1/2, x+1/2'
66 '-x, y+1/2, z+1/2'
67 '-z, -y+1/2, -x+1/2'
68 '-y, -x+1/2, -z+1/2'
69 '-x, -z+1/2, -y+1/2'
70 '-z, -x+1/2, -y+1/2'
71 '-y, -z+1/2, -x+1/2'
72 '-x, -y+1/2, -z+1/2'
73 '-z, -y+1/2, x+1/2'
74 '-y, -x+1/2, z+1/2'
75 '-x, -z+1/2, y+1/2'
76 '-z, -x+1/2, y+1/2'
77 '-y, -z+1/2, x+1/2'
78 '-x, -y+1/2, z+1/2'
79 '-z, y+1/2, -x+1/2'
80 '-y, x+1/2, -z+1/2'
81 '-x, z+1/2, -y+1/2'
82 '-z, x+1/2, -y+1/2'
83 '-y, z+1/2, -x+1/2'
84 '-x, y+1/2, -z+1/2'
85 'z, -y+1/2, -x+1/2'
86 'y, -x+1/2, -z+1/2'
87 'x, -z+1/2, -y+1/2'
88 'z, -x+1/2, -y+1/2'
89 'y, -z+1/2, -x+1/2'
90 'x, -y+1/2, -z+1/2'
91 'z, y+1/2, x+1/2'
92 'y, x+1/2, z+1/2'
93 'x, z+1/2, y+1/2'
94 'z, x+1/2, y+1/2'
95 'y, z+1/2, x+1/2'
96 'x, y+1/2, z+1/2'
97 'z+1/2, y, -x+1/2'
98 'y+1/2, x, -z+1/2'
99 'x+1/2, z, -y+1/2'
100 'z+1/2, x, -y+1/2'
101 'y+1/2, z, -x+1/2'
102 'x+1/2, y, -z+1/2'
103 'z+1/2, -y, x+1/2'
104 'y+1/2, -x, z+1/2'
105 'x+1/2, -z, y+1/2'
106 'z+1/2, -x, y+1/2'
107 'y+1/2, -z, x+1/2'
108 'x+1/2, -y, z+1/2'
109 '-z+1/2, y, x+1/2'
110 '-y+1/2, x, z+1/2'
111 '-x+1/2, z, y+1/2'
112 '-z+1/2, x, y+1/2'
113 '-y+1/2, z, x+1/2'
114 '-x+1/2, y, z+1/2'
115 '-z+1/2, -y, -x+1/2'
116 '-y+1/2, -x, -z+1/2'
117 '-x+1/2, -z, -y+1/2'
118 '-z+1/2, -x, -y+1/2'
119 '-y+1/2, -z, -x+1/2'
120 '-x+1/2, -y, -z+1/2'
121 '-z+1/2, -y, x+1/2'
122 '-y+1/2, -x, z+1/2'
123 '-x+1/2, -z, y+1/2'
124 '-z+1/2, -x, y+1/2'
125 '-y+1/2, -z, x+1/2'
126 '-x+1/2, -y, z+1/2'
127 '-z+1/2, y, -x+1/2'
128 '-y+1/2, x, -z+1/2'
129 '-x+1/2, z, -y+1/2'
130 '-z+1/2, x, -y+1/2'
131 '-y+1/2, z, -x+1/2'
132 '-x+1/2, y, -z+1/2'
133 'z+1/2, -y, -x+1/2'
134 'y+1/2, -x, -z+1/2'
135 'x+1/2, -z, -y+1/2'
136 'z+1/2, -x, -y+1/2'
137 'y+1/2, -z, -x+1/2'
138 'x+1/2, -y, -z+1/2'
139 'z+1/2, y, x+1/2'
140 'y+1/2, x, z+1/2'
141 'x+1/2, z, y+1/2'
142 'z+1/2, x, y+1/2'
143 'y+1/2, z, x+1/2'
144 'x+1/2, y, z+1/2'
145 'z+1/2, y+1/2, -x'
146 'y+1/2, x+1/2, -z'
147 'x+1/2, z+1/2, -y'
148 'z+1/2, x+1/2, -y'
149 'y+1/2, z+1/2, -x'
150 'x+1/2, y+1/2, -z'
151 'z+1/2, -y+1/2, x'
152 'y+1/2, -x+1/2, z'
153 'x+1/2, -z+1/2, y'
154 'z+1/2, -x+1/2, y'
155 'y+1/2, -z+1/2, x'
156 'x+1/2, -y+1/2, z'
157 '-z+1/2, y+1/2, x'
158 '-y+1/2, x+1/2, z'
159 '-x+1/2, z+1/2, y'
160 '-z+1/2, x+1/2, y'
161 '-y+1/2, z+1/2, x'
162 '-x+1/2, y+1/2, z'
163 '-z+1/2, -y+1/2, -x'
164 '-y+1/2, -x+1/2, -z'
165 '-x+1/2, -z+1/2, -y'
166 '-z+1/2, -x+1/2, -y'
167 '-y+1/2, -z+1/2, -x'
168 '-x+1/2, -y+1/2, -z'
169 '-z+1/2, -y+1/2, x'
170 '-y+1/2, -x+1/2, z'
171 '-x+1/2, -z+1/2, y'
172 '-z+1/2, -x+1/2, y'
173 '-y+1/2, -z+1/2, x'
174 '-x+1/2, -y+1/2, z'
175 '-z+1/2, y+1/2, -x'
176 '-y+1/2, x+1/2, -z'
177 '-x+1/2, z+1/2, -y'
178 '-z+1/2, x+1/2, -y'
179 '-y+1/2, z+1/2, -x'
180 '-x+1/2, y+1/2, -z'
181 'z+1/2, -y+1/2, -x'
182 'y+1/2, -x+1/2, -z'
183 'x+1/2, -z+1/2, -y'
184 'z+1/2, -x+1/2, -y'
185 'y+1/2, -z+1/2, -x'
186 'x+1/2, -y+1/2, -z'
187 'z+1/2, y+1/2, x'
188 'y+1/2, x+1/2, z'
189 'x+1/2, z+1/2, y'
190 'z+1/2, x+1/2, y'
191 'y+1/2, z+1/2, x'
192 'x+1/2, y+1/2, z'
loop_
_atom_type_symbol
_atom_type_oxidation_number
C0+ 0
loop_
_atom_site_label
_atom_site_type_symbol
_atom_site_symmetry_multiplicity
_atom_site_Wyckoff_symbol
_atom_site_fract_x
_atom_site_fract_y
_atom_site_fract_z
_atom_site_B_iso_or_equiv
_atom_site_occupancy
_atom_site_attached_hydrogens
C1 C0+ 192 l 0.21002(30) 0.12271(51) 0.95749(13) . 0.0764(9) 0
C2 C0+ 192 l 0.19585(18) 0.13925(33) 0.05683(22) . 0.0764(9) 0
C3 C0+ 192 l 0.11937(23) 0.20551(14) 0.06706(20) . 0.0764(9) 0
C4 C0+ 192 l 0.08629(38) 0.22991(20) 0.97404(23) . 0.0764(9) 0
C5 C0+ 192 l 0.14231(40) 0.17874(40) 0.90632(24) . 0.0764(9) 0
C6 C0+ 192 l 0.10142(53) 0.14382(39) 0.82679(22) . 0.0764(9) 0
C7 C0+ 192 l 0.94921(56) 0.20626(22) 0.87418(48) . 0.0764(9) 0
C8 C0+ 192 l 0.99251(56) 0.24329(15) 0.95842(36) . 0.0764(9) 0
C9 C0+ 192 l 0.92626(33) 0.23305(20) 0.03490(44) . 0.0764(9) 0
C10 C0+ 192 l 0.84202(28) 0.18972(26) 0.99791(49) . 0.0764(9) 0
C11 C0+ 4 a 0 0 0 0.0169(33) 0.3888(78) 0
loop_
_atom_site_aniso_label
_atom_site_aniso_type_symbol
_atom_site_aniso_U_11
_atom_site_aniso_U_22
_atom_site_aniso_U_33
_atom_site_aniso_U_12
_atom_site_aniso_U_13
_atom_site_aniso_U_23
C1 C0+ 0.0840(24) 0.1922(38) 0.2433(38) -0.0969(22) 0.0320(14) 0.0189(21)
C2 C0+ 0.1061(21) 0.1770(24) 0.2380(39) -0.1033(19) -0.0431(13) -0.0307(9)
C3 C0+ 0.1963(27) 0.0917(21) 0.2332(36) -0.0931(17) -0.0309(10) -0.0530(15)
C4 C0+ 0.2208(36) 0.0516(25) 0.2472(35) -0.0750(18) 0.0081(27) 0.0209(14)
C5 C0+ 0.1725(39) 0.1290(37) 0.2173(36) -0.0951(36) 0.0491(18) 0.0615(17)
C6 C0+ 0.2092(52) 0.1708(45) 0.1376(23) -0.0539(54) 0.0651(22) 0.0920(22)
C7 C0+ 0.2379(61) 0.0903(20) 0.1892(35) 0.0387(29) -0.0232(54) 0.0958(22)
C8 C0+ 0.2481(44) 0.0280(25) 0.2423(37) 0.0059(15) -0.0007(48) 0.0366(13)
C9 C0+ 0.2289(31) 0.0461(23) 0.2434(51) 0.0628(18) 0.0099(45) -0.0309(18)
C10 C0+ 0.1556(27) 0.1145(20) 0.2473(65) 0.1106(25) -0.0008(48) 0.0016(35)
#End of TTdata_73661-ICSD